
 displacements (vx,vy,vz) for set NALL and time  0.1000000E+01

         1 -4.369318E-09 -5.290413E-09  9.910583E-10
         2 -2.598975E-09 -7.451163E-09 -4.911598E-10
         3  0.000000E+00  0.000000E+00  0.000000E+00
         4  0.000000E+00  0.000000E+00  0.000000E+00
         5 -2.456932E-09  7.290997E-09 -3.744477E-10
         6 -4.196685E-09  5.375395E-09  1.062784E-09
         7  0.000000E+00  0.000000E+00  0.000000E+00
         8  0.000000E+00  0.000000E+00  0.000000E+00
         9 -4.462331E-09  1.998667E-08  3.788908E-10
        10 -5.260075E-09  1.806233E-08 -3.903572E-09
        11  0.000000E+00  0.000000E+00  0.000000E+00
        12  0.000000E+00  0.000000E+00  0.000000E+00
        13 -5.322901E-09 -1.839156E-08 -3.803890E-09
        14 -4.628724E-09 -1.973626E-08  6.822073E-10
        15  0.000000E+00  0.000000E+00  0.000000E+00
        16  0.000000E+00  0.000000E+00  0.000000E+00
        17  1.714677E-07 -2.284407E-08  1.445845E-07
        18  1.653828E-07  2.408604E-08  1.418581E-07
        19  1.373871E-08  7.644424E-08 -1.826664E-07
        20 -3.307506E-08  3.953917E-07 -8.140138E-07
        21 -1.322962E-08 -3.827132E-07 -8.092026E-07
        22  1.269837E-08 -7.646242E-08 -1.806926E-07
        23  2.210377E-09  1.021305E-08 -9.411361E-08
        24 -4.263612E-08  2.508093E-08 -5.994677E-08
        25 -4.380424E-08 -2.392664E-08 -5.529028E-08
        26 -9.948790E-10 -1.105281E-08 -9.328782E-08
        27  5.608541E-06 -5.517983E-08 -5.247859E-06
        28  5.003552E-06 -3.494829E-08 -3.280316E-06
        29  5.587563E-06 -8.450911E-08 -5.206664E-06
        30  1.144411E-08 -6.100334E-08  1.120524E-07
        31  2.998415E-07  1.639082E-08 -7.176109E-08
        32  4.993508E-06  9.093834E-08 -3.276454E-06
        33  5.615929E-06  1.246215E-07 -5.205414E-06
        34  3.060408E-07 -1.555126E-08 -5.381609E-08
        35  2.298432E-08  6.790855E-08  1.234766E-07
        36  5.605283E-06  1.548234E-07 -5.155877E-06
        37  7.283906E-06  7.130246E-08 -2.053693E-05
        38 -8.875590E-07  3.671064E-08 -2.049699E-05
        39  7.647433E-07 -1.047627E-07 -5.113344E-06
        40  7.239507E-07  1.358751E-07 -5.157804E-06
        41  6.479180E-07  1.269929E-07 -6.092651E-06
        42  5.671524E-06 -4.482097E-08 -6.153675E-06
        43  5.374373E-06 -3.017626E-08 -3.279443E-06
        44  5.354777E-06  9.321137E-08 -3.279989E-06
        45  5.689993E-06  1.190038E-07 -6.106252E-06
        46  6.747838E-07 -9.102735E-08 -6.048572E-06
        47  7.488081E-07  1.776276E-07 -5.111929E-06
        48  7.813310E-07 -1.436431E-07 -5.068134E-06
        49 -3.877601E-09 -6.852125E-09  4.618321E-10
        50 -4.228335E-09 -6.134000E-09  8.180084E-10
        51 -3.261848E-09 -7.231731E-09 -3.602695E-11
        52 -2.766691E-09 -3.484620E-09  1.086440E-09
        53  0.000000E+00  0.000000E+00  0.000000E+00
        54  0.000000E+00  0.000000E+00  0.000000E+00
        55  0.000000E+00  0.000000E+00  0.000000E+00
        56 -1.524075E-09 -4.596110E-09 -2.404473E-10
        57 -3.667445E-09  6.786252E-09  5.466360E-10
        58 -3.072652E-09  7.119205E-09  6.047901E-11
        59 -4.033328E-09  6.136125E-09  8.893078E-10
        60 -1.563080E-09  4.725717E-09 -2.274503E-10
        61  0.000000E+00  0.000000E+00  0.000000E+00
        62  0.000000E+00  0.000000E+00  0.000000E+00
        63  0.000000E+00  0.000000E+00  0.000000E+00
        64 -2.654852E-09  3.489760E-09  1.115236E-09
        65 -5.283393E-09  1.925812E-08 -2.223811E-09
        66 -4.851138E-09  1.971832E-08 -9.732528E-10
        67 -5.353183E-09  1.867593E-08 -3.392338E-09
        68 -2.025616E-09  1.330059E-08 -2.583357E-10
        69  0.000000E+00  0.000000E+00  0.000000E+00
        70  0.000000E+00  0.000000E+00  0.000000E+00
        71  0.000000E+00  0.000000E+00  0.000000E+00
        72 -3.289340E-09  1.236480E-08 -4.221174E-09
        73 -4.943497E-09 -1.941360E-08 -2.209188E-09
        74 -5.164980E-09 -1.898213E-08 -3.356756E-09
        75 -4.736594E-09 -1.960442E-08 -7.887691E-10
        76 -3.274840E-09 -1.195327E-08 -4.080900E-09
        77  0.000000E+00  0.000000E+00  0.000000E+00
        78  0.000000E+00  0.000000E+00  0.000000E+00
        79  0.000000E+00  0.000000E+00  0.000000E+00
        80 -1.937328E-09 -1.277454E-08 -8.080857E-11
        81 -4.387149E-09  5.250052E-10 -9.535453E-11
        82 -5.048445E-09  6.380244E-09 -1.462908E-09
        83 -5.395298E-09  1.271079E-08 -2.920846E-09
        84 -4.182717E-09 -2.555020E-09  6.557307E-10
        85 -4.712972E-09  3.580942E-09 -8.372613E-10
        86 -5.487473E-09  9.479085E-09 -2.044929E-09
        87 -5.305315E-09  1.586794E-08 -3.720000E-09
        88  0.000000E+00  0.000000E+00  0.000000E+00
        89  0.000000E+00  0.000000E+00  0.000000E+00
        90  0.000000E+00  0.000000E+00  0.000000E+00
        91  0.000000E+00  0.000000E+00  0.000000E+00
        92  0.000000E+00  0.000000E+00  0.000000E+00
        93  0.000000E+00  0.000000E+00  0.000000E+00
        94  0.000000E+00  0.000000E+00  0.000000E+00
        95  0.000000E+00  0.000000E+00  0.000000E+00
        96  0.000000E+00  0.000000E+00  0.000000E+00
        97  0.000000E+00  0.000000E+00  0.000000E+00
        98  0.000000E+00  0.000000E+00  0.000000E+00
        99  0.000000E+00  0.000000E+00  0.000000E+00
       100  0.000000E+00  0.000000E+00  0.000000E+00
       101  0.000000E+00  0.000000E+00  0.000000E+00
       102 -4.320885E-09 -3.900433E-10 -7.774682E-11
       103 -5.082234E-09 -6.410834E-09 -1.699363E-09
       104 -5.474701E-09 -1.284610E-08 -3.051435E-09
       105 -4.098693E-09  2.649585E-09  6.678685E-10
       106 -4.660904E-09 -3.471830E-09 -9.323263E-10
       107 -5.548198E-09 -9.632198E-09 -2.401979E-09
       108 -5.329571E-09 -1.580731E-08 -3.607282E-09
       109  0.000000E+00  0.000000E+00  0.000000E+00
       110  0.000000E+00  0.000000E+00  0.000000E+00
       111  0.000000E+00  0.000000E+00  0.000000E+00
       112  0.000000E+00  0.000000E+00  0.000000E+00
       113  0.000000E+00  0.000000E+00  0.000000E+00
       114  0.000000E+00  0.000000E+00  0.000000E+00
       115  0.000000E+00  0.000000E+00  0.000000E+00
       116  0.000000E+00  0.000000E+00  0.000000E+00
       117  0.000000E+00  0.000000E+00  0.000000E+00
       118  0.000000E+00  0.000000E+00  0.000000E+00
       119  0.000000E+00  0.000000E+00  0.000000E+00
       120  0.000000E+00  0.000000E+00  0.000000E+00
       121  0.000000E+00  0.000000E+00  0.000000E+00
       122  0.000000E+00  0.000000E+00  0.000000E+00
       123  0.000000E+00  0.000000E+00  0.000000E+00
       124  0.000000E+00  0.000000E+00  0.000000E+00
       125  0.000000E+00  0.000000E+00  0.000000E+00
       126  0.000000E+00  0.000000E+00  0.000000E+00
       127  0.000000E+00  0.000000E+00  0.000000E+00
       128  0.000000E+00  0.000000E+00  0.000000E+00
       129  0.000000E+00  0.000000E+00  0.000000E+00
       130  0.000000E+00  0.000000E+00  0.000000E+00
       131  3.275415E-08 -2.232531E-08  1.566896E-08
       132  3.416325E-09 -1.210868E-08 -5.572525E-10
       133  8.278169E-08 -2.770498E-08  5.509451E-08
       134  1.448775E-08 -1.659136E-08  4.932678E-09
       135 -6.394374E-10 -8.581604E-09 -1.061463E-09
       136  3.087160E-09  1.193140E-08 -6.061654E-10
       137  3.157709E-08  2.344992E-08  1.455918E-08
       138 -5.886554E-10  8.412231E-09 -1.059721E-09
       139  1.365249E-08  1.684921E-08  4.410737E-09
       140  8.135609E-08  2.871293E-08  5.279944E-08
       141  1.911211E-07 -3.508495E-10  1.673920E-07
       142 -3.490812E-09  1.869426E-08 -2.935281E-09
       143  6.618452E-09  3.169858E-08 -4.056249E-08
       144 -3.818841E-09  1.954211E-08  2.634965E-09
       145 -7.083248E-08  2.633055E-07 -4.595183E-07
       146  2.237736E-07 -1.322193E-07 -9.622919E-07
       147  2.420333E-07  1.426882E-07 -9.217533E-07
       148  1.454756E-07 -2.590710E-07 -8.573512E-07
       149  2.779934E-07  4.699364E-09 -9.677511E-07
       150  1.421847E-07  2.695278E-07 -8.527226E-07
       151 -6.316648E-08 -2.538299E-07 -4.457709E-07
       152 -3.304041E-09 -1.847501E-08 -3.071831E-09
       153 -3.873432E-09 -1.926638E-08  2.685987E-09
       154  6.448865E-09 -3.167077E-08 -4.048713E-08
       155  1.269609E-07 -2.972850E-09  8.202870E-08
       156  7.171188E-08  1.059147E-09  5.901384E-08
       157  1.483296E-07 -8.473623E-09  9.965781E-08
       158  1.063989E-07  1.546558E-09  8.028335E-08
       159  3.590366E-08  5.565949E-09  1.091079E-08
       160 -2.354787E-08  1.679517E-08 -7.893144E-08
       161 -3.677394E-08  5.498058E-08 -1.406768E-07
       162 -3.685293E-08 -5.445728E-08 -1.385682E-07
       163 -2.660182E-08 -1.683758E-08 -7.652191E-08
       164  1.252596E-07  3.770400E-09  8.709589E-08
       165  7.652874E-08 -2.764418E-09  6.450487E-08
       166  1.476404E-07  7.199596E-09  9.213570E-08
       167  1.063105E-07  7.201003E-10  7.891110E-08
       168  3.572421E-08 -6.033074E-09  1.078045E-08
       169  5.359218E-06 -6.603745E-08 -3.986301E-06
       170  5.507407E-06 -6.302746E-08 -4.544860E-06
       171  5.185148E-06 -5.546510E-08 -3.565599E-06
       172  5.599092E-06 -7.058776E-08 -5.226504E-06
       173  1.389615E-06 -1.553724E-07  3.178057E-07
       174  3.894212E-06 -2.242018E-07 -1.157869E-06
       175  5.324650E-07 -1.039014E-07  3.129946E-07
       176  2.597764E-06 -2.045024E-07 -1.122155E-07
       177  4.983978E-06 -1.947840E-07 -2.910622E-06
       178  1.689083E-07 -7.730963E-09  3.365271E-08
       179  1.271318E-06 -1.977976E-08 -7.405662E-08
       180  3.002556E-06 -4.779121E-08 -8.255111E-07
       181  6.624604E-07  6.676271E-09 -2.032764E-08
       182  2.023202E-06 -2.664517E-08 -2.625326E-07
       183  4.058900E-06 -7.078817E-08 -1.814759E-06
       184  5.350891E-06  1.239568E-07 -3.974225E-06
       185  5.174858E-06  1.091007E-07 -3.557998E-06
       186  5.506121E-06  1.263917E-07 -4.515908E-06
       187  1.250052E-06  3.308395E-08 -6.724022E-08
       188  2.998936E-06  7.168353E-08 -8.514514E-07
       189  6.753625E-07 -3.385390E-09 -6.846787E-09
       190  2.021229E-06  4.355191E-08 -2.771480E-07
       191  4.054298E-06  1.052492E-07 -1.826116E-06
       192  1.805031E-07  1.184607E-08  4.932711E-08
       193  1.419535E-06  1.649335E-07  3.299278E-07
       194  3.919890E-06  2.635551E-07 -1.138150E-06
       195  5.546276E-07  1.091746E-07  3.229296E-07
       196  2.627098E-06  2.299062E-07 -9.766214E-08
       197  5.010211E-06  2.464984E-07 -2.886122E-06
       198  5.612799E-06  1.398494E-07 -5.180730E-06
       199  7.252012E-06  5.505144E-08 -1.879587E-05
       200  7.191832E-06 -2.119556E-09 -1.419952E-05
       201  7.096814E-06 -6.040747E-08 -8.653225E-06
       202  6.854420E-06 -8.050369E-08 -4.440527E-06
       203  6.524491E-06  3.678353E-08 -3.097756E-06
       204  6.866288E-06  1.419974E-07 -4.406078E-06
       205  7.126346E-06  1.565040E-07 -8.587011E-06
       206  7.222415E-06  1.203805E-07 -1.412648E-05
       207  7.273137E-06  8.047720E-08 -1.875227E-05
       208  7.272768E-06  6.494751E-08 -2.009631E-05
       209  7.224076E-06  3.073760E-08 -1.676109E-05
       210  7.156023E-06 -4.023630E-08 -1.138172E-05
       211  6.997779E-06 -7.316001E-08 -6.264381E-06
       212  6.686924E-06 -4.123107E-08 -3.386359E-06
       213  6.653749E-06  1.088440E-07 -3.387235E-06
       214  7.025226E-06  1.541909E-07 -6.205832E-06
       215  7.188774E-06  1.463985E-07 -1.131008E-05
       216  7.251808E-06  9.644151E-08 -1.669862E-05
       217  7.283968E-06  7.572961E-08 -2.007417E-05
       218  3.199627E-06  5.460596E-08 -2.051065E-05
       219  5.240357E-06  6.293901E-08 -2.052169E-05
       220  1.157783E-06  4.583390E-08 -2.050141E-05
       221 -8.809376E-07  6.306430E-08 -1.875459E-05
       222 -8.465931E-07  1.044211E-07 -1.417664E-05
       223 -7.712945E-07  1.416287E-07 -8.629142E-06
       224 -5.222960E-07  1.428134E-07 -4.327817E-06
       225  3.696581E-08  1.186808E-09 -2.857686E-06
       226 -5.013212E-07 -9.865354E-08 -4.297003E-06
       227 -7.400464E-07 -1.093260E-07 -8.561987E-06
       228 -8.129733E-07 -5.172838E-08 -1.410626E-05
       229 -8.585029E-07  3.438687E-09 -1.870759E-05
       230 -8.888848E-07  5.022350E-08 -2.005712E-05
       231 -8.674202E-07  8.358513E-08 -1.672323E-05
       232 -8.178528E-07  1.258627E-07 -1.137855E-05
       233 -6.872301E-07  1.515776E-07 -6.189794E-06
       234 -1.705350E-07  8.811964E-08 -3.191858E-06
       235 -1.334573E-07 -6.543669E-08 -3.173474E-06
       236 -6.652899E-07 -1.223364E-07 -6.137318E-06
       237 -7.835896E-07 -8.387372E-08 -1.130668E-05
       238 -8.388372E-07 -2.290554E-08 -1.666172E-05
       239 -8.761488E-07  2.141054E-08 -2.003092E-05
       240  6.467502E-07  8.529357E-08 -3.052389E-06
       241  6.531153E-07 -6.004478E-08 -3.038539E-06
       242  7.371091E-07  1.219300E-07 -3.842224E-06
       243  5.390699E-07  1.032569E-08 -2.835939E-06
       244  7.616350E-07 -9.839951E-08 -3.826653E-06
       245  6.827712E-07  1.310744E-07 -5.608727E-06
       246  6.647959E-07  1.289252E-07 -5.846730E-06
       247  7.027026E-07  1.334918E-07 -5.378831E-06
       248  3.158729E-06  4.096071E-08 -6.086341E-06
       249  5.641338E-06 -4.937231E-08 -5.683264E-06
       250  5.656621E-06 -4.695538E-08 -5.914389E-06
       251  5.625123E-06 -5.226275E-08 -5.460932E-06
       252  5.187184E-06 -3.386069E-08 -3.279628E-06
       253  5.168586E-06  2.493691E-08 -3.109756E-06
       254  5.246100E-06 -3.293267E-09 -3.145507E-06
       255  5.235952E-06  5.814233E-08 -3.147340E-06
       256  5.173114E-06  9.291228E-08 -3.278207E-06
       257  5.653910E-06  1.215345E-07 -5.636794E-06
       258  5.635029E-06  1.229948E-07 -5.416227E-06
       259  5.671994E-06  1.200299E-07 -5.867168E-06
       260  3.190088E-06  1.256790E-08 -6.038991E-06
       261  7.127232E-07 -9.679314E-08 -5.566402E-06
       262  7.370900E-07 -1.010275E-07 -5.335806E-06
       263  6.929036E-07 -9.367318E-08 -5.803601E-06
       264  5.631955E-06 -6.042832E-08 -5.678950E-06
       265  6.902478E-07  1.442912E-07 -5.606563E-06
       266  7.307808E-07  1.570845E-07 -5.139424E-06
       267  5.650858E-06  1.323917E-07 -5.628447E-06
       268  3.959657E-07 -2.992390E-08  2.139895E-07
       269  6.457001E-07 -4.741888E-08  2.948225E-07
       270  1.090060E-06 -7.374763E-08  3.770776E-07
       271  1.939940E-06 -1.252138E-07  2.824944E-07
       272  3.442713E-06 -1.798873E-07 -5.350479E-07
       273  2.861691E-07 -2.981786E-08  1.884387E-07
       274  5.061076E-07 -3.929405E-08  2.528156E-07
       275  8.307769E-07 -5.950127E-08  3.493877E-07
       276  1.444959E-06 -9.702969E-08  3.778855E-07
       277  2.594416E-06 -1.575505E-07  3.175501E-08
       278  4.410428E-06 -1.490185E-07 -1.620187E-06
       279  4.023289E-07  1.579370E-08  2.104933E-07
       280  6.485213E-07  3.847293E-08  2.964459E-07
       281  1.100170E-06  6.964135E-08  3.817527E-07
       282  1.930442E-06  1.357097E-07  2.890409E-07
       283  3.464833E-06  1.862527E-07 -5.463872E-07
       284  2.946443E-07  1.758972E-08  1.859020E-07
       285  5.124331E-07  2.535497E-08  2.507048E-07
       286  8.385088E-07  5.279717E-08  3.512456E-07
       287  1.450263E-06  9.896950E-08  3.773581E-07
       288  2.602032E-06  1.627560E-07  2.347671E-08
       289  4.414107E-06  1.742275E-07 -1.627479E-06
       290  4.862235E-07  4.371965E-07 -2.071201E-06
       291  1.524815E-07  4.471119E-07 -1.260512E-06
       292  7.645122E-07  3.239802E-07 -3.383641E-06
       293  5.128039E-07 -4.159562E-07 -2.050950E-06
       294  1.763090E-07 -4.298412E-07 -1.250134E-06
       295  7.897182E-07 -3.007172E-07 -3.353188E-06
       296  7.649138E-07 -1.243639E-07 -5.095525E-06
       297  7.201480E-07 -1.098259E-07 -5.562319E-06
       298 -1.306041E-07  1.479580E-08 -7.242042E-08
       299 -1.324249E-07 -9.262003E-09 -8.151729E-08
       300  8.252621E-08  1.044733E-08 -1.038994E-07
       301  9.112076E-08 -1.421943E-08 -9.018233E-08
       302 -2.648609E-09 -3.968811E-09  9.060491E-10
       303 -2.178962E-09 -4.034935E-09  5.262503E-10
       304 -1.964673E-09 -4.560005E-09  1.023323E-10
       305 -1.923848E-09  4.547753E-09  1.446510E-10
       306 -2.525909E-09  3.927476E-09  9.482292E-10
       307 -2.254479E-09  4.285975E-09  5.771036E-10
       308 -2.247052E-09  1.317667E-08 -1.522733E-09
       309 -2.628608E-09  1.302231E-08 -2.899951E-09
       310 -2.934780E-09  1.273258E-08 -3.867562E-09
       311 -3.012769E-09 -1.234720E-08 -3.793407E-09
       312 -2.349842E-09 -1.282305E-08 -1.371028E-09
       313 -2.667389E-09 -1.266794E-08 -2.729063E-09
       314 -4.113972E-09  6.233010E-09 -2.073343E-09
       315 -3.592613E-09  2.220843E-09 -8.756744E-10
       316 -4.007922E-09  1.030231E-08 -3.874716E-09
       317 -3.055756E-09 -1.362892E-09  5.035017E-10
       318 -1.747487E-09 -1.358345E-09  6.968809E-10
       319 -3.820599E-09 -3.194513E-09  9.299868E-10
       320 -4.058384E-09 -6.753840E-10  2.048987E-10
       321 -1.863258E-09 -2.289804E-10  9.313199E-11
       322 -2.114175E-09  6.319595E-09 -3.096085E-09
       323 -4.729462E-09  1.472668E-08 -4.176083E-09
       324 -5.228369E-09  1.214861E-08 -3.418009E-09
       325 -2.341760E-09  5.228503E-09 -2.667094E-09
       326 -4.625855E-09  4.260663E-09 -1.211932E-09
       327 -4.358121E-09  1.746020E-09 -5.286606E-10
       328 -3.317962E-09  4.381443E-10 -2.418985E-10
       329 -5.216444E-09  9.486851E-09 -2.471323E-09
       330 -5.024341E-09  6.785252E-09 -1.796736E-09
       331 -3.866089E-09  4.161263E-09 -1.591733E-09
       332 -4.274392E-09  8.415915E-09 -3.229129E-09
       333 -2.240104E-09  1.847400E-09 -8.371448E-10
       334 -1.932213E-09  7.089840E-10 -4.190635E-10
       335 -2.588715E-09  4.230992E-09 -2.058454E-09
       336 -2.240039E-09  2.819284E-09 -1.331782E-09
       337 -3.620574E-09 -2.185354E-09 -1.005896E-09
       338 -4.171122E-09 -6.071929E-09 -2.411252E-09
       339 -3.852134E-09 -1.037281E-08 -3.894241E-09
       340 -3.036936E-09  1.420605E-09  5.223688E-10
       341 -1.653693E-09  1.302193E-09  6.051364E-10
       342 -3.730423E-09  3.297192E-09  9.691362E-10
       343 -4.007512E-09  7.759536E-10  2.167969E-10
       344 -1.846468E-09  3.131107E-10  1.592992E-10
       345 -4.699244E-09 -1.491413E-08 -4.085251E-09
       346 -2.104069E-09 -6.266684E-09 -3.388659E-09
       347 -5.191202E-09 -1.230779E-08 -3.430294E-09
       348 -2.345949E-09 -5.194146E-09 -2.778873E-09
       349 -2.194440E-09 -1.629597E-09 -8.242285E-10
       350 -2.021920E-09 -7.116427E-10 -4.764475E-10
       351 -3.310209E-09 -3.814275E-10 -2.272098E-10
       352 -2.358470E-09 -3.741417E-09 -1.692725E-09
       353 -2.340168E-09 -2.802564E-09 -1.499696E-09
       354 -3.934024E-09 -4.103135E-09 -1.773277E-09
       355 -4.139682E-09 -8.455949E-09 -3.293058E-09
       356 -4.334692E-09 -1.629504E-09 -5.530094E-10
       357 -4.661165E-09 -4.172626E-09 -1.389892E-09
       358 -5.072315E-09 -6.756018E-09 -2.125855E-09
       359 -5.327265E-09 -9.665696E-09 -2.728662E-09
       360  0.000000E+00  0.000000E+00  0.000000E+00
       361  0.000000E+00  0.000000E+00  0.000000E+00
       362  0.000000E+00  0.000000E+00  0.000000E+00
       363  0.000000E+00  0.000000E+00  0.000000E+00
       364  0.000000E+00  0.000000E+00  0.000000E+00
       365  0.000000E+00  0.000000E+00  0.000000E+00
       366  0.000000E+00  0.000000E+00  0.000000E+00
       367  0.000000E+00  0.000000E+00  0.000000E+00
       368  0.000000E+00  0.000000E+00  0.000000E+00
       369  0.000000E+00  0.000000E+00  0.000000E+00
       370  0.000000E+00  0.000000E+00  0.000000E+00
       371  0.000000E+00  0.000000E+00  0.000000E+00
       372  0.000000E+00  0.000000E+00  0.000000E+00
       373  0.000000E+00  0.000000E+00  0.000000E+00
       374  0.000000E+00  0.000000E+00  0.000000E+00
       375  0.000000E+00  0.000000E+00  0.000000E+00
       376  0.000000E+00  0.000000E+00  0.000000E+00
       377  0.000000E+00  0.000000E+00  0.000000E+00
       378  0.000000E+00  0.000000E+00  0.000000E+00
       379  0.000000E+00  0.000000E+00  0.000000E+00
       380  0.000000E+00  0.000000E+00  0.000000E+00
       381  0.000000E+00  0.000000E+00  0.000000E+00
       382  0.000000E+00  0.000000E+00  0.000000E+00
       383  0.000000E+00  0.000000E+00  0.000000E+00
       384  0.000000E+00  0.000000E+00  0.000000E+00
       385  0.000000E+00  0.000000E+00  0.000000E+00
       386  0.000000E+00  0.000000E+00  0.000000E+00
       387  0.000000E+00  0.000000E+00  0.000000E+00
       388  0.000000E+00  0.000000E+00  0.000000E+00
       389  0.000000E+00  0.000000E+00  0.000000E+00
       390  0.000000E+00  0.000000E+00  0.000000E+00
       391  0.000000E+00  0.000000E+00  0.000000E+00
       392  0.000000E+00  0.000000E+00  0.000000E+00
       393  0.000000E+00  0.000000E+00  0.000000E+00
       394  0.000000E+00  0.000000E+00  0.000000E+00
       395  0.000000E+00  0.000000E+00  0.000000E+00
       396  0.000000E+00  0.000000E+00  0.000000E+00
       397  0.000000E+00  0.000000E+00  0.000000E+00
       398  0.000000E+00  0.000000E+00  0.000000E+00
       399  0.000000E+00  0.000000E+00  0.000000E+00
       400  0.000000E+00  0.000000E+00  0.000000E+00
       401  0.000000E+00  0.000000E+00  0.000000E+00
       402  0.000000E+00  0.000000E+00  0.000000E+00
       403  0.000000E+00  0.000000E+00  0.000000E+00
       404  0.000000E+00  0.000000E+00  0.000000E+00
       405  0.000000E+00  0.000000E+00  0.000000E+00
       406  0.000000E+00  0.000000E+00  0.000000E+00
       407  0.000000E+00  0.000000E+00  0.000000E+00
       408  0.000000E+00  0.000000E+00  0.000000E+00
       409  0.000000E+00  0.000000E+00  0.000000E+00
       410  0.000000E+00  0.000000E+00  0.000000E+00
       411  0.000000E+00  0.000000E+00  0.000000E+00
       412  0.000000E+00  0.000000E+00  0.000000E+00
       413  0.000000E+00  0.000000E+00  0.000000E+00
       414  0.000000E+00  0.000000E+00  0.000000E+00
       415  0.000000E+00  0.000000E+00  0.000000E+00
       416  0.000000E+00  0.000000E+00  0.000000E+00
       417  0.000000E+00  0.000000E+00  0.000000E+00
       418  0.000000E+00  0.000000E+00  0.000000E+00
       419  0.000000E+00  0.000000E+00  0.000000E+00
       420  0.000000E+00  0.000000E+00  0.000000E+00
       421  0.000000E+00  0.000000E+00  0.000000E+00
       422  0.000000E+00  0.000000E+00  0.000000E+00
       423  0.000000E+00  0.000000E+00  0.000000E+00
       424  0.000000E+00  0.000000E+00  0.000000E+00
       425  0.000000E+00  0.000000E+00  0.000000E+00
       426  0.000000E+00  0.000000E+00  0.000000E+00
       427  0.000000E+00  0.000000E+00  0.000000E+00
       428  0.000000E+00  0.000000E+00  0.000000E+00
       429  0.000000E+00  0.000000E+00  0.000000E+00
       430  0.000000E+00  0.000000E+00  0.000000E+00
       431  0.000000E+00  0.000000E+00  0.000000E+00
       432  0.000000E+00  0.000000E+00  0.000000E+00
       433  0.000000E+00  0.000000E+00  0.000000E+00
       434  0.000000E+00  0.000000E+00  0.000000E+00
       435  0.000000E+00  0.000000E+00  0.000000E+00
       436  0.000000E+00  0.000000E+00  0.000000E+00
       437  0.000000E+00  0.000000E+00  0.000000E+00
       438  0.000000E+00  0.000000E+00  0.000000E+00
       439  0.000000E+00  0.000000E+00  0.000000E+00
       440  0.000000E+00  0.000000E+00  0.000000E+00
       441  0.000000E+00  0.000000E+00  0.000000E+00
       442  0.000000E+00  0.000000E+00  0.000000E+00
       443  0.000000E+00  0.000000E+00  0.000000E+00
       444  0.000000E+00  0.000000E+00  0.000000E+00
       445  0.000000E+00  0.000000E+00  0.000000E+00
       446  0.000000E+00  0.000000E+00  0.000000E+00
       447  0.000000E+00  0.000000E+00  0.000000E+00
       448  0.000000E+00  0.000000E+00  0.000000E+00
       449  0.000000E+00  0.000000E+00  0.000000E+00
       450  0.000000E+00  0.000000E+00  0.000000E+00
       451  0.000000E+00  0.000000E+00  0.000000E+00
       452  0.000000E+00  0.000000E+00  0.000000E+00
       453  0.000000E+00  0.000000E+00  0.000000E+00
       454  0.000000E+00  0.000000E+00  0.000000E+00
       455  0.000000E+00  0.000000E+00  0.000000E+00
       456  0.000000E+00  0.000000E+00  0.000000E+00
       457  0.000000E+00  0.000000E+00  0.000000E+00
       458  0.000000E+00  0.000000E+00  0.000000E+00
       459  0.000000E+00  0.000000E+00  0.000000E+00
       460  0.000000E+00  0.000000E+00  0.000000E+00
       461  0.000000E+00  0.000000E+00  0.000000E+00
       462  0.000000E+00  0.000000E+00  0.000000E+00
       463  0.000000E+00  0.000000E+00  0.000000E+00
       464  0.000000E+00  0.000000E+00  0.000000E+00
       465  0.000000E+00  0.000000E+00  0.000000E+00
       466  0.000000E+00  0.000000E+00  0.000000E+00
       467  0.000000E+00  0.000000E+00  0.000000E+00
       468  0.000000E+00  0.000000E+00  0.000000E+00
       469  0.000000E+00  0.000000E+00  0.000000E+00
       470  0.000000E+00  0.000000E+00  0.000000E+00
       471  0.000000E+00  0.000000E+00  0.000000E+00
       472  0.000000E+00  0.000000E+00  0.000000E+00
       473  0.000000E+00  0.000000E+00  0.000000E+00
       474  0.000000E+00  0.000000E+00  0.000000E+00
       475  0.000000E+00  0.000000E+00  0.000000E+00
       476  0.000000E+00  0.000000E+00  0.000000E+00
       477  0.000000E+00  0.000000E+00  0.000000E+00
       478  0.000000E+00  0.000000E+00  0.000000E+00
       479  0.000000E+00  0.000000E+00  0.000000E+00
       480  0.000000E+00  0.000000E+00  0.000000E+00
       481  0.000000E+00  0.000000E+00  0.000000E+00
       482  0.000000E+00  0.000000E+00  0.000000E+00
       483  0.000000E+00  0.000000E+00  0.000000E+00
       484  0.000000E+00  0.000000E+00  0.000000E+00
       485  0.000000E+00  0.000000E+00  0.000000E+00
       486  0.000000E+00  0.000000E+00  0.000000E+00
       487  0.000000E+00  0.000000E+00  0.000000E+00
       488  0.000000E+00  0.000000E+00  0.000000E+00
       489  0.000000E+00  0.000000E+00  0.000000E+00
       490  0.000000E+00  0.000000E+00  0.000000E+00
       491  0.000000E+00  0.000000E+00  0.000000E+00
       492  0.000000E+00  0.000000E+00  0.000000E+00
       493  0.000000E+00  0.000000E+00  0.000000E+00
       494  0.000000E+00  0.000000E+00  0.000000E+00
       495  0.000000E+00  0.000000E+00  0.000000E+00
       496  0.000000E+00  0.000000E+00  0.000000E+00
       497  0.000000E+00  0.000000E+00  0.000000E+00
       498  0.000000E+00  0.000000E+00  0.000000E+00
       499  0.000000E+00  0.000000E+00  0.000000E+00
       500  0.000000E+00  0.000000E+00  0.000000E+00
       501  0.000000E+00  0.000000E+00  0.000000E+00
       502  0.000000E+00  0.000000E+00  0.000000E+00
       503  0.000000E+00  0.000000E+00  0.000000E+00
       504  0.000000E+00  0.000000E+00  0.000000E+00
       505  0.000000E+00  0.000000E+00  0.000000E+00
       506  0.000000E+00  0.000000E+00  0.000000E+00
       507  0.000000E+00  0.000000E+00  0.000000E+00
       508  0.000000E+00  0.000000E+00  0.000000E+00
       509  0.000000E+00  0.000000E+00  0.000000E+00
       510  0.000000E+00  0.000000E+00  0.000000E+00
       511  0.000000E+00  0.000000E+00  0.000000E+00
       512  0.000000E+00  0.000000E+00  0.000000E+00
       513  0.000000E+00  0.000000E+00  0.000000E+00
       514  0.000000E+00  0.000000E+00  0.000000E+00
       515  0.000000E+00  0.000000E+00  0.000000E+00
       516  0.000000E+00  0.000000E+00  0.000000E+00
       517  0.000000E+00  0.000000E+00  0.000000E+00
       518  0.000000E+00  0.000000E+00  0.000000E+00
       519  0.000000E+00  0.000000E+00  0.000000E+00
       520  0.000000E+00  0.000000E+00  0.000000E+00
       521  0.000000E+00  0.000000E+00  0.000000E+00
       522  0.000000E+00  0.000000E+00  0.000000E+00
       523  0.000000E+00  0.000000E+00  0.000000E+00
       524  0.000000E+00  0.000000E+00  0.000000E+00
       525  0.000000E+00  0.000000E+00  0.000000E+00
       526  0.000000E+00  0.000000E+00  0.000000E+00
       527  0.000000E+00  0.000000E+00  0.000000E+00
       528  0.000000E+00  0.000000E+00  0.000000E+00
       529  0.000000E+00  0.000000E+00  0.000000E+00
       530  0.000000E+00  0.000000E+00  0.000000E+00
       531  0.000000E+00  0.000000E+00  0.000000E+00
       532  0.000000E+00  0.000000E+00  0.000000E+00
       533  0.000000E+00  0.000000E+00  0.000000E+00
       534  0.000000E+00  0.000000E+00  0.000000E+00
       535  0.000000E+00  0.000000E+00  0.000000E+00
       536  0.000000E+00  0.000000E+00  0.000000E+00
       537  0.000000E+00  0.000000E+00  0.000000E+00
       538  0.000000E+00  0.000000E+00  0.000000E+00
       539  0.000000E+00  0.000000E+00  0.000000E+00
       540  0.000000E+00  0.000000E+00  0.000000E+00
       541  0.000000E+00  0.000000E+00  0.000000E+00
       542  0.000000E+00  0.000000E+00  0.000000E+00
       543  0.000000E+00  0.000000E+00  0.000000E+00
       544  0.000000E+00  0.000000E+00  0.000000E+00
       545 -2.950135E-10  6.293076E-09 -2.936288E-10
       546 -2.910258E-10 -6.100820E-09 -3.466871E-10
       547 -4.796260E-10 -3.089122E-09 -1.817938E-10
       548 -1.318852E-09 -6.863458E-09 -6.921859E-10
       549  8.357050E-10 -9.470066E-09 -5.023474E-10
       550  9.088472E-10 -5.358985E-09  5.508504E-10
       551 -4.080603E-10  3.075220E-09 -1.600299E-10
       552 -1.300623E-09  6.772294E-09 -6.440294E-10
       553  7.744763E-10  9.423993E-09 -4.564941E-10
       554  8.627138E-10  5.102703E-09  5.586584E-10
       555  8.547125E-08  1.497848E-08  9.034285E-08
       556  8.302049E-08 -1.204717E-08  7.809511E-08
       557  5.677969E-08 -3.428441E-08  5.481596E-08
       558  2.618411E-08 -2.822156E-08  1.808330E-08
       559  5.751123E-08  3.641976E-08  5.243788E-08
       560  2.617338E-08  2.961950E-08  1.792275E-08
       561  9.322626E-09  1.772051E-08  5.236931E-09
       562  2.408849E-09  1.138994E-08  9.521876E-10
       563  1.005751E-08 -1.783501E-08  5.663136E-09
       564  2.694942E-09 -1.167704E-08  9.243388E-10