    1C
    1UUSER                                                              
    1UDATE              26.april.2017                                   
    1UTIME              10:29:00                                        
    1UHOST                                                              
    1UPGM               CalculiX                                        
    1UVERSION           Version 2.11                             
    1UCOMPILETIME       Wed Mar 29 20:32:15 CEST 2017                    
    1UDIR                                                               
    1UDBN                                                               
    1UMAT    1SOLIDMATERIAL                                             
    2C                          1654                                     1
 -1         1-3.49250E+01 6.35000E+01 9.52500E+00
 -1         2-4.12750E+01 5.71500E+01 9.52500E+00
 -1         3-3.49250E+01 6.35000E+01-9.52500E+00
 -1         4-4.12750E+01 5.71500E+01-9.52500E+00
 -1         5-4.12750E+01-5.71500E+01 9.52500E+00
 -1         6-3.49250E+01-6.35000E+01 9.52500E+00
 -1         7-4.12750E+01-5.71500E+01-9.52500E+00
 -1         8-3.49250E+01-6.35000E+01-9.52500E+00
 -1         9 4.12750E+01 5.71500E+01 9.52500E+00
 -1        10 3.49250E+01 6.35000E+01 9.52500E+00
 -1        11 4.12750E+01 5.71500E+01-9.52500E+00
 -1        12 3.49250E+01 6.35000E+01-9.52500E+00
 -1        13 3.49250E+01-6.35000E+01 9.52500E+00
 -1        14 4.12750E+01-5.71500E+01 9.52500E+00
 -1        15 3.49250E+01-6.35000E+01-9.52500E+00
 -1        16 4.12750E+01-5.71500E+01-9.52500E+00
 -1        17-4.12750E+01 7.93750E+00 9.52500E+00
 -1        18-4.12750E+01-7.93750E+00 9.52500E+00
 -1        19 4.12750E+01 2.54000E+01 9.52500E+00
 -1        20 4.12750E+01 2.54000E+01 2.69824E+01
 -1        21 4.12750E+01-2.54000E+01 2.69824E+01
 -1        22 4.12750E+01-2.54000E+01 9.52500E+00
 -1        23 2.22250E+01 7.93750E+00 9.52500E+00
 -1        24 2.22250E+01 2.54000E+01 9.52500E+00
 -1        25 2.22250E+01-2.54000E+01 9.52500E+00
 -1        26 2.22250E+01-7.93750E+00 9.52500E+00
 -1        27 5.71500E+01 2.24372E+01 6.19074E+01
 -1        28 4.88344E+01 7.93750E+00 6.09030E+01
 -1        29 5.71500E+01 2.54000E+01 6.19074E+01
 -1        30 2.22250E+01 2.54000E+01 2.69824E+01
 -1        31 2.22250E+01 7.93750E+00 2.69824E+01
 -1        32 4.88344E+01-7.93750E+00 6.09030E+01
 -1        33 5.71500E+01-2.24372E+01 6.19074E+01
 -1        34 2.22250E+01-7.93750E+00 2.69824E+01
 -1        35 2.22250E+01-2.54000E+01 2.69824E+01
 -1        36 5.71500E+01-2.54000E+01 6.19074E+01
 -1        37 1.11125E+02 0.00000E+00 6.66750E+01
 -1        38 1.11125E+02 0.00000E+00 3.81000E+01
 -1        39 5.71500E+01-2.24372E+01 4.28574E+01
 -1        40 5.71500E+01 2.24372E+01 4.28574E+01
 -1        41 6.05894E+01 2.54000E+01 4.28574E+01
 -1        42 6.05894E+01 2.54000E+01 6.19074E+01
 -1        43 4.88344E+01 7.93750E+00 6.21517E+01
 -1        44 4.88344E+01-7.93750E+00 6.21517E+01
 -1        45 6.05894E+01-2.54000E+01 6.19074E+01
 -1        46 6.05894E+01-2.54000E+01 4.28574E+01
 -1        47 5.71500E+01 2.54000E+01 4.28574E+01
 -1        48 5.71500E+01-2.54000E+01 4.28574E+01
 -1        49-3.94151E+01 6.16401E+01 9.52500E+00
 -1        50-3.73550E+01 6.30166E+01 9.52500E+00
 -1        51-4.07916E+01 5.95800E+01 9.52500E+00
 -1        52-3.49250E+01 6.35000E+01-3.55271E-15
 -1        53-3.94151E+01 6.16401E+01-9.52500E+00
 -1        54-3.73550E+01 6.30166E+01-9.52500E+00
 -1        55-4.07916E+01 5.95800E+01-9.52500E+00
 -1        56-4.12750E+01 5.71500E+01-5.10703E-01
 -1        57-3.94151E+01-6.16401E+01 9.52500E+00
 -1        58-4.07916E+01-5.95800E+01 9.52500E+00
 -1        59-3.73550E+01-6.30166E+01 9.52500E+00
 -1        60-4.12750E+01-5.71500E+01 0.00000E+00
 -1        61-3.94151E+01-6.16401E+01-9.52500E+00
 -1        62-4.07916E+01-5.95800E+01-9.52500E+00
 -1        63-3.73550E+01-6.30166E+01-9.52500E+00
 -1        64-3.49250E+01-6.35000E+01 0.00000E+00
 -1        65 3.94151E+01 6.16401E+01 9.52500E+00
 -1        66 4.07916E+01 5.95800E+01 9.52500E+00
 -1        67 3.73550E+01 6.30166E+01 9.52500E+00
 -1        68 4.12750E+01 5.71500E+01 0.00000E+00
 -1        69 3.94151E+01 6.16401E+01-9.52500E+00
 -1        70 4.07916E+01 5.95800E+01-9.52500E+00
 -1        71 3.73550E+01 6.30166E+01-9.52500E+00
 -1        72 3.49250E+01 6.35000E+01 0.00000E+00
 -1        73 3.94151E+01-6.16401E+01 9.52500E+00
 -1        74 3.73550E+01-6.30166E+01 9.52500E+00
 -1        75 4.07916E+01-5.95800E+01 9.52500E+00
 -1        76 3.49250E+01-6.35000E+01-3.55271E-15
 -1        77 3.94151E+01-6.16401E+01-9.52500E+00
 -1        78 3.73550E+01-6.30166E+01-9.52500E+00
 -1        79 4.07916E+01-5.95800E+01-9.52500E+00
 -1        80 4.12750E+01-5.71500E+01-4.44089E-01
 -1        81-1.74625E+01 6.35000E+01 9.52500E+00
 -1        82 3.43088E-14 6.35000E+01 9.52500E+00
 -1        83 1.74625E+01 6.35000E+01 9.52500E+00
 -1        84-2.61938E+01 6.35000E+01 9.52500E+00
 -1        85-8.73125E+00 6.35000E+01 9.52500E+00
 -1        86 8.73125E+00 6.35000E+01 9.52500E+00
 -1        87 2.61938E+01 6.35000E+01 9.52500E+00
 -1        88-1.74625E+01 6.35000E+01-9.52500E+00
 -1        89 4.23456E-14 6.35000E+01-9.52500E+00
 -1        90 1.74625E+01 6.35000E+01-9.52500E+00
 -1        91-2.61938E+01 6.35000E+01-9.52500E+00
 -1        92-8.73125E+00 6.35000E+01-9.52500E+00
 -1        93 8.73125E+00 6.35000E+01-9.52500E+00
 -1        94 2.61938E+01 6.35000E+01-9.52500E+00
 -1        95-1.74625E+01-6.35000E+01-9.52500E+00
 -1        96 4.23456E-14-6.35000E+01-9.52500E+00
 -1        97 1.74625E+01-6.35000E+01-9.52500E+00
 -1        98-2.61938E+01-6.35000E+01-9.52500E+00
 -1        99-8.73125E+00-6.35000E+01-9.52500E+00
 -1       100 8.73125E+00-6.35000E+01-9.52500E+00
 -1       101 2.61938E+01-6.35000E+01-9.52500E+00
 -1       102-1.74625E+01-6.35000E+01 9.52500E+00
 -1       103 3.43088E-14-6.35000E+01 9.52500E+00
 -1       104 1.74625E+01-6.35000E+01 9.52500E+00
 -1       105-2.61938E+01-6.35000E+01 9.52500E+00
 -1       106-8.73125E+00-6.35000E+01 9.52500E+00
 -1       107 8.73125E+00-6.35000E+01 9.52500E+00
 -1       108 2.61938E+01-6.35000E+01 9.52500E+00
 -1       109 4.12750E+01-3.81000E+01-9.52500E+00
 -1       110 4.12750E+01-1.90500E+01-9.52500E+00
 -1       111 4.12750E+01 7.10543E-15-9.52500E+00
 -1       112 4.12750E+01 1.90500E+01-9.52500E+00
 -1       113 4.12750E+01 3.81000E+01-9.52500E+00
 -1       114 4.12750E+01-4.76250E+01-9.52500E+00
 -1       115 4.12750E+01-2.85750E+01-9.52500E+00
 -1       116 4.12750E+01-9.52500E+00-9.52500E+00
 -1       117 4.12750E+01 9.52500E+00-9.52500E+00
 -1       118 4.12750E+01 2.85750E+01-9.52500E+00
 -1       119 4.12750E+01 4.76250E+01-9.52500E+00
 -1       120-4.12750E+01-3.81000E+01-9.52500E+00
 -1       121-4.12750E+01-1.90500E+01-9.52500E+00
 -1       122-4.12750E+01 7.10543E-15-9.52500E+00
 -1       123-4.12750E+01 1.90500E+01-9.52500E+00
 -1       124-4.12750E+01 3.81000E+01-9.52500E+00
 -1       125-4.12750E+01-4.76250E+01-9.52500E+00
 -1       126-4.12750E+01-2.85750E+01-9.52500E+00
 -1       127-4.12750E+01-9.52500E+00-9.52500E+00
 -1       128-4.12750E+01 9.52500E+00-9.52500E+00
 -1       129-4.12750E+01 2.85750E+01-9.52500E+00
 -1       130-4.12750E+01 4.76250E+01-9.52500E+00
 -1       131-4.12750E+01 2.43417E+01 9.52500E+00
 -1       132-4.12750E+01 4.07458E+01 9.52500E+00
 -1       133-4.12750E+01 1.61396E+01 9.52500E+00
 -1       134-4.12750E+01 3.25438E+01 9.52500E+00
 -1       135-4.12750E+01 4.89479E+01 9.52500E+00
 -1       136-4.12750E+01-4.07458E+01 9.52500E+00
 -1       137-4.12750E+01-2.43417E+01 9.52500E+00
 -1       138-4.12750E+01-4.89479E+01 9.52500E+00
 -1       139-4.12750E+01-3.25438E+01 9.52500E+00
 -1       140-4.12750E+01-1.61396E+01 9.52500E+00
 -1       141-4.12750E+01 0.00000E+00 9.52500E+00
 -1       142 4.12750E+01 4.12750E+01 9.52500E+00
 -1       143 4.12750E+01 3.33375E+01 9.52500E+00
 -1       144 4.12750E+01 4.92125E+01 9.52500E+00
 -1       145 4.12750E+01 2.54000E+01 1.82537E+01
 -1       146 4.12750E+01-8.46667E+00 2.69824E+01
 -1       147 4.12750E+01 8.46667E+00 2.69824E+01
 -1       148 4.12750E+01-1.69333E+01 2.69824E+01
 -1       149 4.12750E+01 3.55271E-14 2.69824E+01
 -1       150 4.12750E+01 1.69333E+01 2.69824E+01
 -1       151 4.12750E+01-2.54000E+01 1.82537E+01
 -1       152 4.12750E+01-4.12750E+01 9.52500E+00
 -1       153 4.12750E+01-4.92125E+01 9.52500E+00
 -1       154 4.12750E+01-3.33375E+01 9.52500E+00
 -1       155-2.01083E+01 7.93750E+00 9.52500E+00
 -1       156 1.05833E+00 7.93750E+00 9.52500E+00
 -1       157-3.06917E+01 7.93750E+00 9.52500E+00
 -1       158-9.52500E+00 7.93750E+00 9.52500E+00
 -1       159 1.16417E+01 7.93750E+00 9.52500E+00
 -1       160 2.22250E+01 1.66688E+01 9.52500E+00
 -1       161 3.17500E+01 2.54000E+01 9.52500E+00
 -1       162 3.17500E+01-2.54000E+01 9.52500E+00
 -1       163 2.22250E+01-1.66688E+01 9.52500E+00
 -1       164-2.01083E+01-7.93750E+00 9.52500E+00
 -1       165 1.05833E+00-7.93750E+00 9.52500E+00
 -1       166-3.06917E+01-7.93750E+00 9.52500E+00
 -1       167-9.52500E+00-7.93750E+00 9.52500E+00
 -1       168 1.16417E+01-7.93750E+00 9.52500E+00
 -1       169 5.20146E+01 1.57407E+01 6.15278E+01
 -1       170 5.43561E+01 1.92582E+01 6.17955E+01
 -1       171 5.01640E+01 1.19463E+01 6.12016E+01
 -1       172 5.71500E+01 2.39186E+01 6.19074E+01
 -1       173 2.69041E+01 2.54000E+01 4.44449E+01
 -1       174 3.96875E+01 2.54000E+01 5.72284E+01
 -1       175 2.34150E+01 2.54000E+01 3.60217E+01
 -1       176 3.24543E+01 2.54000E+01 5.16781E+01
 -1       177 4.81107E+01 2.54000E+01 6.07174E+01
 -1       178 2.22250E+01 1.66688E+01 2.69824E+01
 -1       179 2.56032E+01 7.93750E+00 4.19677E+01
 -1       180 3.50844E+01 7.93750E+00 5.40539E+01
 -1       181 2.30800E+01 7.93750E+00 3.46631E+01
 -1       182 2.96711E+01 7.93750E+00 4.85385E+01
 -1       183 4.15782E+01 7.93750E+00 5.82438E+01
 -1       184 5.20146E+01-1.57407E+01 6.15278E+01
 -1       185 5.01640E+01-1.19463E+01 6.12016E+01
 -1       186 5.43561E+01-1.92582E+01 6.17955E+01
 -1       187 2.56032E+01-7.93750E+00 4.19677E+01
 -1       188 3.50844E+01-7.93750E+00 5.40539E+01
 -1       189 2.30800E+01-7.93750E+00 3.46631E+01
 -1       190 2.96711E+01-7.93750E+00 4.85385E+01
 -1       191 4.15782E+01-7.93750E+00 5.82438E+01
 -1       192 2.22250E+01-1.66688E+01 2.69824E+01
 -1       193 2.69041E+01-2.54000E+01 4.44449E+01
 -1       194 3.96875E+01-2.54000E+01 5.72284E+01
 -1       195 2.34150E+01-2.54000E+01 3.60217E+01
 -1       196 3.24543E+01-2.54000E+01 5.16781E+01
 -1       197 4.81107E+01-2.54000E+01 6.07174E+01
 -1       198 5.71500E+01-2.39186E+01 6.19074E+01
 -1       199 1.05080E+02 1.86040E+01 6.66750E+01
 -1       200 8.92547E+01 3.01019E+01 6.66750E+01
 -1       201 6.96933E+01 3.01019E+01 6.66750E+01
 -1       202 5.38677E+01 1.86040E+01 6.66750E+01
 -1       203 4.78229E+01-6.64033E-01 6.66750E+01
 -1       204 5.38677E+01-1.86040E+01 6.66750E+01
 -1       205 6.96933E+01-3.01019E+01 6.66750E+01
 -1       206 8.92547E+01-3.01019E+01 6.66750E+01
 -1       207 1.05080E+02-1.86040E+01 6.66750E+01
 -1       208 1.09576E+02 9.78071E+00 6.66750E+01
 -1       209 9.80780E+01 2.56062E+01 6.66750E+01
 -1       210 7.94740E+01 3.16510E+01 6.66750E+01
 -1       211 6.08699E+01 2.56062E+01 6.66750E+01
 -1       212 4.93720E+01 9.78071E+00 6.66750E+01
 -1       213 4.93720E+01-9.78071E+00 6.66750E+01
 -1       214 6.08699E+01-2.56062E+01 6.66750E+01
 -1       215 7.94740E+01-3.16510E+01 6.66750E+01
 -1       216 9.80780E+01-2.56062E+01 6.66750E+01
 -1       217 1.09576E+02-9.78071E+00 6.66750E+01
 -1       218 1.11125E+02 0.00000E+00 5.23875E+01
 -1       219 1.11125E+02 0.00000E+00 5.95312E+01
 -1       220 1.11125E+02 0.00000E+00 4.52438E+01
 -1       221 1.05080E+02 1.86040E+01 3.81000E+01
 -1       222 8.92547E+01 3.01019E+01 3.81000E+01
 -1       223 6.96933E+01 3.01019E+01 3.81000E+01
 -1       224 5.38677E+01 1.86040E+01 3.81000E+01
 -1       225 4.78229E+01-6.64033E-01 3.81000E+01
 -1       226 5.38677E+01-1.86040E+01 3.81000E+01
 -1       227 6.96933E+01-3.01019E+01 3.81000E+01
 -1       228 8.92547E+01-3.01019E+01 3.81000E+01
 -1       229 1.05080E+02-1.86040E+01 3.81000E+01
 -1       230 1.09576E+02 9.78071E+00 3.81000E+01
 -1       231 9.80780E+01 2.56062E+01 3.81000E+01
 -1       232 7.94740E+01 3.16510E+01 3.81000E+01
 -1       233 6.08699E+01 2.56062E+01 3.81000E+01
 -1       234 4.93720E+01 9.78071E+00 3.81000E+01
 -1       235 4.93720E+01-9.78071E+00 3.81000E+01
 -1       236 6.08699E+01-2.56062E+01 3.81000E+01
 -1       237 7.94740E+01-3.16510E+01 3.81000E+01
 -1       238 9.80780E+01-2.56062E+01 3.81000E+01
 -1       239 1.09576E+02-9.78071E+00 3.81000E+01
 -1       240 4.89171E+01 8.24988E+00 4.05557E+01
 -1       241 4.89170E+01-8.24997E+00 4.05557E+01
 -1       242 5.20788E+01 1.58521E+01 4.20256E+01
 -1       243 4.78229E+01-1.07225E-04 3.98285E+01
 -1       244 5.20783E+01-1.58522E+01 4.20258E+01
 -1       245 5.88165E+01 2.39804E+01 4.28574E+01
 -1       246 5.96902E+01 2.47061E+01 4.28574E+01
 -1       247 5.79694E+01 2.32237E+01 4.28574E+01
 -1       248 6.05894E+01 2.54000E+01 5.23824E+01
 -1       249 5.88165E+01 2.39804E+01 6.19074E+01
 -1       250 5.96902E+01 2.47061E+01 6.19074E+01
 -1       251 5.79694E+01 2.32237E+01 6.19074E+01
 -1       252 4.88344E+01 7.93750E+00 6.15274E+01
 -1       253 4.78229E+01 2.72988E-06 6.21000E+01
 -1       254 4.80768E+01 4.00091E+00 6.21144E+01
 -1       255 4.80768E+01-4.00092E+00 6.21144E+01
 -1       256 4.88344E+01-7.93750E+00 6.15274E+01
 -1       257 5.88165E+01-2.39804E+01 6.19074E+01
 -1       258 5.79694E+01-2.32237E+01 6.19074E+01
 -1       259 5.96902E+01-2.47061E+01 6.19074E+01
 -1       260 6.05894E+01-2.54000E+01 5.23824E+01
 -1       261 5.88165E+01-2.39804E+01 4.28574E+01
 -1       262 5.79694E+01-2.32237E+01 4.28574E+01
 -1       263 5.96902E+01-2.47061E+01 4.28574E+01
 -1       264 5.88697E+01 2.54000E+01 6.19074E+01
 -1       265 5.88697E+01 2.54000E+01 4.28574E+01
 -1       266 5.71500E+01 2.39186E+01 4.28574E+01
 -1       267 5.88697E+01-2.54000E+01 6.19074E+01
 -1       268-3.18245E+01 7.93750E+00 2.48906E+01
 -1       269-1.83269E+01 7.93750E+00 3.69749E+01
 -1       270-2.92121E+00 7.93750E+00 4.65439E+01
 -1       271 1.36015E+01 7.93750E+00 5.40317E+01
 -1       272 3.09136E+01 7.93750E+00 5.94454E+01
 -1       273-3.72908E+01 7.93750E+00 1.76583E+01
 -1       274-2.53984E+01 7.93750E+00 3.12915E+01
 -1       275-1.07965E+01 7.93750E+00 4.20366E+01
 -1       276 5.22709E+00 7.93750E+00 5.05372E+01
 -1       277 2.21709E+01 7.93750E+00 5.70161E+01
 -1       278 3.98111E+01 7.93750E+00 6.12223E+01
 -1       279-3.18245E+01-7.93750E+00 2.48906E+01
 -1       280-1.83269E+01-7.93750E+00 3.69749E+01
 -1       281-2.92121E+00-7.93750E+00 4.65439E+01
 -1       282 1.36015E+01-7.93750E+00 5.40317E+01
 -1       283 3.09136E+01-7.93750E+00 5.94454E+01
 -1       284-3.72908E+01-7.93750E+00 1.76583E+01
 -1       285-2.53984E+01-7.93750E+00 3.12915E+01
 -1       286-1.07965E+01-7.93750E+00 4.20366E+01
 -1       287 5.22709E+00-7.93750E+00 5.05372E+01
 -1       288 2.21709E+01-7.93750E+00 5.70161E+01
 -1       289 3.98111E+01-7.93750E+00 6.12223E+01
 -1       290 4.59247E+01 2.54000E+01 3.82077E+01
 -1       291 4.24834E+01 2.54000E+01 3.30575E+01
 -1       292 5.10749E+01 2.54000E+01 4.16490E+01
 -1       293 4.59247E+01-2.54000E+01 3.82077E+01
 -1       294 4.24834E+01-2.54000E+01 3.30575E+01
 -1       295 5.10749E+01-2.54000E+01 4.16490E+01
 -1       296 5.71500E+01-2.39186E+01 4.28574E+01
 -1       297 5.88697E+01-2.54000E+01 4.28574E+01
 -1       298 2.22250E+01-2.54000E+01 1.82537E+01
 -1       299 2.22250E+01 2.54000E+01 1.82537E+01
 -1       300 2.22250E+01 7.93750E+00 1.82537E+01
 -1       301 2.22250E+01-7.93750E+00 1.82537E+01
 -1       302-3.73550E+01 6.30166E+01 0.00000E+00
 -1       303-3.94151E+01 6.16401E+01-8.88178E-01
 -1       304-4.07916E+01 5.95800E+01-1.11022E-01
 -1       305-4.07916E+01-5.95800E+01-3.55271E-15
 -1       306-3.73550E+01-6.30166E+01 0.00000E+00
 -1       307-3.94151E+01-6.16401E+01 0.00000E+00
 -1       308 4.07916E+01 5.95800E+01 3.55271E-15
 -1       309 3.94151E+01 6.16401E+01 0.00000E+00
 -1       310 3.73550E+01 6.30166E+01 0.00000E+00
 -1       311 3.73550E+01-6.30166E+01 8.88178E-16
 -1       312 4.07916E+01-5.95800E+01 2.22045E-16
 -1       313 3.94151E+01-6.16401E+01 8.88178E-16
 -1       314 8.73125E+00 6.35000E+01 3.55271E-15
 -1       315-8.73125E+00 6.35000E+01 3.55271E-15
 -1       316 2.52846E+01 6.35000E+01 0.00000E+00
 -1       317-2.52846E+01 6.35000E+01 0.00000E+00
 -1       318-3.01048E+01 6.35000E+01-4.76250E+00
 -1       319-3.01048E+01 6.35000E+01 4.76250E+00
 -1       320-2.13736E+01 6.35000E+01 4.76250E+00
 -1       321-2.13736E+01 6.35000E+01-4.76250E+00
 -1       322 3.01048E+01 6.35000E+01-4.76250E+00
 -1       323 3.01048E+01 6.35000E+01 4.76250E+00
 -1       324 2.13736E+01 6.35000E+01 4.76250E+00
 -1       325 2.13736E+01 6.35000E+01-4.76250E+00
 -1       326-4.36562E+00 6.35000E+01 4.76250E+00
 -1       327-1.30969E+01 6.35000E+01 4.76250E+00
 -1       328-1.70079E+01 6.35000E+01 3.55271E-15
 -1       329 1.30969E+01 6.35000E+01 4.76250E+00
 -1       330 4.36562E+00 6.35000E+01 4.76250E+00
 -1       331 2.84217E-14 6.35000E+01 3.55271E-15
 -1       332 1.70079E+01 6.35000E+01 3.55271E-15
 -1       333-4.36562E+00 6.35000E+01-4.76250E+00
 -1       334-1.30969E+01 6.35000E+01-4.76250E+00
 -1       335 1.30969E+01 6.35000E+01-4.76250E+00
 -1       336 4.36562E+00 6.35000E+01-4.76250E+00
 -1       337-8.73125E+00-6.35000E+01 0.00000E+00
 -1       338 8.73125E+00-6.35000E+01 3.55271E-15
 -1       339 2.52846E+01-6.35000E+01-3.55271E-15
 -1       340-2.52846E+01-6.35000E+01 0.00000E+00
 -1       341-3.01048E+01-6.35000E+01-4.76250E+00
 -1       342-3.01048E+01-6.35000E+01 4.76250E+00
 -1       343-2.13736E+01-6.35000E+01 4.76250E+00
 -1       344-2.13736E+01-6.35000E+01-4.76250E+00
 -1       345 3.01048E+01-6.35000E+01 4.76250E+00
 -1       346 3.01048E+01-6.35000E+01-4.76250E+00
 -1       347 2.13736E+01-6.35000E+01 4.76250E+00
 -1       348 2.13736E+01-6.35000E+01-4.76250E+00
 -1       349-4.36562E+00-6.35000E+01-4.76250E+00
 -1       350-1.30969E+01-6.35000E+01-4.76250E+00
 -1       351-1.70079E+01-6.35000E+01 0.00000E+00
 -1       352 1.30969E+01-6.35000E+01-4.76250E+00
 -1       353 4.36562E+00-6.35000E+01-4.76250E+00
 -1       354 2.84217E-14-6.35000E+01 3.55271E-15
 -1       355 1.70079E+01-6.35000E+01 0.00000E+00
 -1       356-1.30969E+01-6.35000E+01 4.76250E+00
 -1       357-4.36562E+00-6.35000E+01 4.76250E+00
 -1       358 4.36562E+00-6.35000E+01 4.76250E+00
 -1       359 1.30969E+01-6.35000E+01 4.76250E+00
 -1       360-2.96695E+00 2.32323E+01-9.52500E+00
 -1       361 2.94003E+00-2.34775E+01-9.52500E+00
 -1       362 2.30520E+01 4.59414E+01-9.52500E+00
 -1       363-2.30520E+01-4.59414E+01-9.52500E+00
 -1       364-2.38230E+01 4.98446E+01-9.52500E+00
 -1       365 2.38230E+01-4.98446E+01-9.52500E+00
 -1       366 1.27999E+01-2.79918E-01-9.52500E+00
 -1       367-1.28538E+01-2.10602E-01-9.52500E+00
 -1       368-3.38268E+01-5.60303E+01-9.52500E+00
 -1       369-3.42324E+01 5.68148E+01-9.52500E+00
 -1       370 3.42324E+01-5.68148E+01-9.52500E+00
 -1       371 3.38268E+01 5.60303E+01-9.52500E+00
 -1       372-6.71794E+00 4.44320E+01-9.52500E+00
 -1       373 6.71409E+00-4.44670E+01-9.52500E+00
 -1       374 2.40447E+01-3.10858E+01-9.52500E+00
 -1       375-2.40486E+01 3.10508E+01-9.52500E+00
 -1       376 2.72357E+01 3.01362E+01-9.52500E+00
 -1       377-2.72357E+01-3.01362E+01-9.52500E+00
 -1       378 3.33329E+01 4.54716E+01-9.52500E+00
 -1       379-3.44077E+01 4.68872E+01-9.52500E+00
 -1       380 3.44072E+01-4.68922E+01-9.52500E+00
 -1       381-3.33329E+01-4.54716E+01-9.52500E+00
 -1       382 1.13680E+01 5.20035E+01-9.52500E+00
 -1       383-1.13686E+01-5.20093E+01-9.52500E+00
 -1       384-2.76107E+01 5.84149E+01-9.52500E+00
 -1       385-2.41270E+01-5.61962E+01-9.52500E+00
 -1       386 2.41269E+01 5.61950E+01-9.52500E+00
 -1       387 2.76107E+01-5.84149E+01-9.52500E+00
 -1       388-2.62346E+01 1.19793E+01-9.52500E+00
 -1       389 2.62346E+01-1.19793E+01-9.52500E+00
 -1       390 2.68423E+01 8.53795E+00-9.52500E+00
 -1       391-2.68513E+01-8.61970E+00-9.52500E+00
 -1       392-4.90855E-01 7.25902E+00-9.52500E+00
 -1       393 1.07007E+01 3.50077E+01-9.52500E+00
 -1       394-1.07060E+01-3.50554E+01-9.52500E+00
 -1       395 1.23535E+01 1.73155E+01-9.52500E+00
 -1       396-1.24780E+01-1.75218E+01-9.52500E+00
 -1       397-1.33189E+01 1.46621E+01-9.52500E+00
 -1       398 1.31715E+01-1.48907E+01-9.52500E+00
 -1       399 5.14801E-01-8.18692E+00-9.52500E+00
 -1       400-3.68237E+01 5.92275E+01-9.52500E+00
 -1       401-3.45787E+01 6.01574E+01-9.52500E+00
 -1       402-2.25366E+01 6.09574E+01-9.52500E+00
 -1       403-3.12679E+01 6.09574E+01-9.52500E+00
 -1       404-3.09215E+01 5.76149E+01-9.52500E+00
 -1       405-3.77537E+01 5.69824E+01-9.52500E+00
 -1       406-3.78414E+01 4.24936E+01-9.52500E+00
 -1       407-3.78414E+01 5.20186E+01-9.52500E+00
 -1       408-3.43200E+01 5.18510E+01-9.52500E+00
 -1       409-3.66210E+01-5.88352E+01-9.52500E+00
 -1       410-3.75509E+01-5.65901E+01-9.52500E+00
 -1       411-3.73040E+01-4.17858E+01-9.52500E+00
 -1       412-3.73040E+01-5.13108E+01-9.52500E+00
 -1       413-3.35799E+01-5.07509E+01-9.52500E+00
 -1       414-3.43759E+01-5.97651E+01-9.52500E+00
 -1       415-2.07947E+01-5.98481E+01-9.52500E+00
 -1       416-2.95260E+01-5.98481E+01-9.52500E+00
 -1       417-2.89769E+01-5.61132E+01-9.52500E+00
 -1       418 3.66210E+01 5.88352E+01-9.52500E+00
 -1       419 3.75509E+01 5.65901E+01-9.52500E+00
 -1       420 3.73040E+01 4.17858E+01-9.52500E+00
 -1       421 3.73040E+01 5.13108E+01-9.52500E+00
 -1       422 3.35799E+01 5.07509E+01-9.52500E+00
 -1       423 3.43759E+01 5.97651E+01-9.52500E+00
 -1       424 2.07947E+01 5.98475E+01-9.52500E+00
 -1       425 2.95259E+01 5.98475E+01-9.52500E+00
 -1       426 2.89768E+01 5.61126E+01-9.52500E+00
 -1       427 3.68237E+01-5.92275E+01-9.52500E+00
 -1       428 3.45787E+01-6.01574E+01-9.52500E+00
 -1       429 2.25366E+01-6.09574E+01-9.52500E+00
 -1       430 3.12679E+01-6.09574E+01-9.52500E+00
 -1       431 3.09215E+01-5.76149E+01-9.52500E+00
 -1       432 3.77537E+01-5.69824E+01-9.52500E+00
 -1       433 3.78411E+01-4.24961E+01-9.52500E+00
 -1       434 3.78411E+01-5.20211E+01-9.52500E+00
 -1       435 3.43198E+01-5.18535E+01-9.52500E+00
 -1       436-3.35897E+00 5.39660E+01-9.52500E+00
 -1       437-1.20902E+01 5.39660E+01-9.52500E+00
 -1       438-1.52705E+01 4.71383E+01-9.52500E+00
 -1       439-2.06427E+01 5.66723E+01-9.52500E+00
 -1       440-2.57169E+01 5.41297E+01-9.52500E+00
 -1       441 1.44153E+01 5.77518E+01-9.52500E+00
 -1       442 5.68400E+00 5.77518E+01-9.52500E+00
 -1       443 2.32503E+00 4.82177E+01-9.52500E+00
 -1       444 1.77474E+01 5.40993E+01-9.52500E+00
 -1       445-5.68432E+00-5.77547E+01-9.52500E+00
 -1       446-1.44156E+01-5.77547E+01-9.52500E+00
 -1       447-1.77478E+01-5.41028E+01-9.52500E+00
 -1       448 1.20883E+01-5.39835E+01-9.52500E+00
 -1       449 3.35705E+00-5.39835E+01-9.52500E+00
 -1       450-2.32728E+00-4.82382E+01-9.52500E+00
 -1       451 1.52685E+01-4.71558E+01-9.52500E+00
 -1       452 2.06427E+01-5.66723E+01-9.52500E+00
 -1       453 2.57169E+01-5.41297E+01-9.52500E+00
 -1       454 3.26599E+01-2.50679E+01-9.52500E+00
 -1       455 3.26599E+01-3.45929E+01-9.52500E+00
 -1       456 2.92259E+01-3.89890E+01-9.52500E+00
 -1       457 3.37548E+01-5.98965E+00-9.52500E+00
 -1       458 3.37548E+01-1.55147E+01-9.52500E+00
 -1       459 2.51396E+01-2.15325E+01-9.52500E+00
 -1       460 3.40586E+01 1.37940E+01-9.52500E+00
 -1       461 3.40586E+01 4.26897E+00-9.52500E+00
 -1       462 2.65384E+01-1.72068E+00-9.52500E+00
 -1       463 3.42554E+01 3.41181E+01-9.52500E+00
 -1       464 3.42554E+01 2.45931E+01-9.52500E+00
 -1       465 2.70390E+01 1.93371E+01-9.52500E+00
 -1       466 3.02843E+01 3.78039E+01-9.52500E+00
 -1       467-3.42554E+01-2.45931E+01-9.52500E+00
 -1       468-3.42554E+01-3.41181E+01-9.52500E+00
 -1       469-3.02843E+01-3.78039E+01-9.52500E+00
 -1       470-3.40631E+01-4.30985E+00-9.52500E+00
 -1       471-3.40631E+01-1.38349E+01-9.52500E+00
 -1       472-2.70435E+01-1.93779E+01-9.52500E+00
 -1       473-3.37548E+01 1.55147E+01-9.52500E+00
 -1       474-3.37548E+01 5.98965E+00-9.52500E+00
 -1       475-2.65429E+01 1.67980E+00-9.52500E+00
 -1       476-3.26618E+01 3.45754E+01-9.52500E+00
 -1       477-3.26618E+01 2.50504E+01-9.52500E+00
 -1       478-2.51416E+01 2.15150E+01-9.52500E+00
 -1       479-2.92281E+01 3.89690E+01-9.52500E+00
 -1       480-1.53833E+01 3.77414E+01-9.52500E+00
 -1       481-4.84245E+00 3.38321E+01-9.52500E+00
 -1       482-1.35078E+01 2.71415E+01-9.52500E+00
 -1       483 1.99139E+00 3.97198E+01-9.52500E+00
 -1       484 3.86688E+00 2.91200E+01-9.52500E+00
 -1       485-1.86838E+01 2.28565E+01-9.52500E+00
 -1       486-8.14295E+00 1.89472E+01-9.52500E+00
 -1       487 5.93131E+00 1.22873E+01-9.52500E+00
 -1       488-1.72890E+00 1.52456E+01-9.52500E+00
 -1       489 4.69326E+00 2.02739E+01-9.52500E+00
 -1       490-6.90490E+00 1.09606E+01-9.52500E+00
 -1       491 1.15271E+01 2.61616E+01-9.52500E+00
 -1       492 1.53794E+01-3.77764E+01-9.52500E+00
 -1       493 4.82706E+00-3.39723E+01-9.52500E+00
 -1       494 1.34924E+01-2.72817E+01-9.52500E+00
 -1       495-1.99593E+00-3.97612E+01-9.52500E+00
 -1       496-3.88296E+00-2.92664E+01-9.52500E+00
 -1       497 1.86081E+01-2.29883E+01-9.52500E+00
 -1       498 8.05578E+00-1.91841E+01-9.52500E+00
 -1       499-1.15920E+01-2.62886E+01-9.52500E+00
 -1       500-4.76901E+00-2.04996E+01-9.52500E+00
 -1       501-5.98162E+00-1.28543E+01-9.52500E+00
 -1       502 1.72741E+00-1.58322E+01-9.52500E+00
 -1       503 6.84317E+00-1.15388E+01-9.52500E+00
 -1       504 2.81924E+01 4.57065E+01-9.52500E+00
 -1       505 2.84394E+01 5.09858E+01-9.52500E+00
 -1       506 2.35894E+01 5.10682E+01-9.52500E+00
 -1       507 2.51439E+01 3.80388E+01-9.52500E+00
 -1       508 1.89682E+01 3.25719E+01-9.52500E+00
 -1       509 1.68764E+01 4.04745E+01-9.52500E+00
 -1       510 1.72100E+01 4.89725E+01-9.52500E+00
 -1       511 1.10344E+01 4.35056E+01-9.52500E+00
 -1       512-2.81924E+01-4.57065E+01-9.52500E+00
 -1       513-2.84394E+01-5.09858E+01-9.52500E+00
 -1       514-2.35895E+01-5.10688E+01-9.52500E+00
 -1       515-2.51439E+01-3.80388E+01-9.52500E+00
 -1       516-1.89708E+01-3.25958E+01-9.52500E+00
 -1       517-1.68790E+01-4.04984E+01-9.52500E+00
 -1       518-1.72103E+01-4.89754E+01-9.52500E+00
 -1       519-1.10373E+01-4.35324E+01-9.52500E+00
 -1       520-2.90277E+01 5.33297E+01-9.52500E+00
 -1       521-2.91153E+01 4.83659E+01-9.52500E+00
 -1       522-2.39358E+01 4.04477E+01-9.52500E+00
 -1       523 2.90277E+01-5.33297E+01-9.52500E+00
 -1       524 2.91151E+01-4.83684E+01-9.52500E+00
 -1       525 2.39339E+01-4.04652E+01-9.52500E+00
 -1       526 1.95172E+01-6.12961E+00-9.52500E+00
 -1       527 1.98211E+01 4.12902E+00-9.52500E+00
 -1       528 1.97030E+01-1.34350E+01-9.52500E+00
 -1       529 1.29857E+01-7.58533E+00-9.52500E+00
 -1       530 1.95979E+01 1.29267E+01-9.52500E+00
 -1       531 1.25767E+01 8.51781E+00-9.52500E+00
 -1       532 6.15454E+00 3.48955E+00-9.52500E+00
 -1       533 1.19731E-02-4.63951E-01-9.52500E+00
 -1       534 6.65737E+00-4.23342E+00-9.52500E+00
 -1       535-1.95442E+01 5.88435E+00-9.52500E+00
 -1       536-1.98525E+01-4.41515E+00-9.52500E+00
 -1       537-1.97768E+01 1.33207E+01-9.52500E+00
 -1       538-1.30864E+01 7.22577E+00-9.52500E+00
 -1       539-1.96647E+01-1.30707E+01-9.52500E+00
 -1       540-1.26659E+01-8.86618E+00-9.52500E+00
 -1       541-6.67233E+00 3.52421E+00-9.52500E+00
 -1       542-6.16950E+00-4.19876E+00-9.52500E+00
 -1       543 1.97946E+01 2.37259E+01-9.52500E+00
 -1       544-1.98569E+01-2.38290E+01-9.52500E+00
 -1       545-4.12750E+01-4.89479E+01 4.44089E-16
 -1       546-4.12750E+01 4.89479E+01-5.10703E-01
 -1       547-4.12750E+01 5.30490E+01-4.76250E+00
 -1       548-4.12750E+01 5.30490E+01 4.76250E+00
 -1       549-4.12750E+01 4.48469E+01 4.76250E+00
 -1       550-4.12750E+01 4.35240E+01-4.76250E+00
 -1       551-4.12750E+01-5.30490E+01-4.76250E+00
 -1       552-4.12750E+01-5.30490E+01 4.76250E+00
 -1       553-4.12750E+01-4.48469E+01 4.76250E+00
 -1       554-4.12750E+01-4.35240E+01-4.76250E+00
 -1       555-4.12750E+01-3.96875E+00 0.00000E+00
 -1       556-4.12750E+01 3.96875E+00 0.00000E+00
 -1       557-4.12750E+01 1.34937E+01 0.00000E+00
 -1       558-4.12750E+01 2.16958E+01 0.00000E+00
 -1       559-4.12750E+01-1.34937E+01 0.00000E+00
 -1       560-4.12750E+01-2.16958E+01 0.00000E+00
 -1       561-4.12750E+01-3.12208E+01 0.00000E+00
 -1       562-4.12750E+01-3.94229E+01 0.00000E+00
 -1       563-4.12750E+01 3.12208E+01 0.00000E+00
 -1       564-4.12750E+01 3.94229E+01 0.00000E+00
 -1       565 4.12750E+01 7.63773E+00 7.24817E+00
 -1       566 4.12750E+01-9.53438E+00 1.06597E+01
 -1       567 4.12750E+01 1.60086E+01 1.81455E+01
 -1       568 4.12750E+01 4.92125E+01-6.66134E-01
 -1       569 4.12750E+01-4.92125E+01-6.66134E-01
 -1       570 4.12750E+01 2.84217E-14 1.84527E+01
 -1       571 4.12750E+01 5.31813E+01-4.76250E+00
 -1       572 4.12750E+01 5.31813E+01 4.76250E+00
 -1       573 4.12750E+01 4.52438E+01 4.76250E+00
 -1       574 4.12750E+01 4.36562E+01-4.76250E+00
 -1       575 4.12750E+01-5.31813E+01-4.76250E+00
 -1       576 4.12750E+01-5.31813E+01 4.76250E+00
 -1       577 4.12750E+01-4.52438E+01 4.76250E+00
 -1       578 4.12750E+01-4.36562E+01-4.76250E+00
 -1       579 4.12750E+01 2.07043E+01 2.25640E+01
 -1       580 4.12750E+01 2.07043E+01 1.38353E+01
 -1       581 4.12750E+01 3.17500E+01 0.00000E+00
 -1       582 4.12750E+01 2.22250E+01 0.00000E+00
 -1       583 4.12750E+01 1.33439E+01-1.13841E+00